LAMMPS Description

      3450 atoms
      3400 bonds
      6100 angles
      8050 dihedrals
      3550 impropers

        16 atom types
        21 bond types
        36 angle types
        45 dihedral types
        20 improper types

# Cell: 32.657119 32.657119 32.657119 90.0000 90.0000 90.0000
    0.000000    32.657119 xlo xhi
    0.000000    32.657119 ylo yhi
    0.000000    32.657119 zlo zhi

Masses

         1 12.01115	# c2
         2 12.01115	# c2oe
         3 12.01115	# c4o
         4 12.01115	# c_1
         5 12.01100	# c_2
         6 1.00797	# hc
         7 1.00800	# hn2
         8 1.00797	# ho
         9 1.00800	# ho2
        10 14.01000	# n_2
        11 14.00670	# n_31
        12 15.99940	# o_1
        13 15.99940	# o_2
        14 15.99940	# o_2c
        15 15.99940	# oc
        16 15.99940	# oh

Atoms

1 1 1 -0.10600000 21.237708 11.393383 13.300036 0 0 0 	# PA_1::C1	c2
2 1 1 -0.10600000 22.280972 10.385748 12.899758 0 0 0 	# PA_1::C2	c2
3 1 1 -0.10600000 23.595454 11.040588 12.401116 0 0 0 	# PA_1::C3	c2
4 1 1 -0.10600000 24.614128 9.847787 12.253735 0 0 0 	# PA_1::C4	c2
5 1 4 0.45000000 26.016947 10.368994 12.235414 0 0 0 	# PA_1::C5	c_1
6 1 12 -0.45000000 26.761203 10.015350 13.103277 0 0 0 	# PA_1::O1	o_1
7 1 6 0.05300000 21.176149 12.015599 12.351673 0 0 0 	# PA_1::H1	hc
8 1 6 0.05300000 20.214332 10.973641 13.419496 0 0 0 	# PA_1::H2	hc
9 1 6 0.05300000 22.010604 9.639043 12.159943 0 0 0 	# PA_1::H3	hc
10 1 6 0.05300000 22.345536 9.753538 13.783198 0 0 0 	# PA_1::H4	hc
11 1 6 0.05300000 24.118295 11.701699 13.118267 0 0 0 	# PA_1::H5	hc
12 1 6 0.05300000 23.382791 11.578614 11.473687 0 0 0 	# PA_1::H6	hc
13 1 6 0.05300000 24.381184 9.123876 11.357819 0 0 0 	# PA_1::H7	hc
14 1 6 0.05300000 24.681858 9.197518 13.113139 0 0 0 	# PA_1::H8	hc
15 1 11 -0.35000000 26.275101 11.193064 11.184018 0 0 0 	# PA_1::N	n_31
16 1 7 0.35000000 25.663825 11.217818 10.421899 0 0 0 	# PA_1::H9	hn2
17 1 1 -0.10600000 21.524699 12.200896 14.515371 0 0 0 	# PA_1::C6	c2
18 1 6 0.05300000 22.424892 12.850511 14.387682 0 0 0 	# PA_1::H10	hc
19 1 6 0.05300000 21.815478 11.466078 15.354332 0 0 0 	# PA_1::H11	hc
20 1 4 0.56200000 20.468306 13.104747 15.045135 0 0 0 	# PA_1::C7	c_1
21 1 12 -0.45000000 20.630384 13.823301 15.973838 0 0 0 	# PA_1::O2	o_1
22 1 1 -0.10600000 26.130594 14.658409 10.954439 0 0 0 	# PA_2::C1	c2
23 1 1 -0.10600000 27.056749 15.438751 11.913186 0 0 0 	# PA_2::C2	c2
24 1 1 -0.10600000 26.600399 15.355573 13.384357 0 0 0 	# PA_2::C3	c2
25 1 1 -0.10600000 27.211740 16.457032 14.339578 0 0 0 	# PA_2::C4	c2
26 1 4 0.45000000 26.749838 17.711001 13.807724 0 0 0 	# PA_2::C5	c_1
27 1 12 -0.45000000 25.581856 18.070555 13.797502 0 0 0 	# PA_2::O1	o_1
28 1 6 0.05300000 25.163028 14.572423 11.418790 0 0 0 	# PA_2::H1	hc
29 1 6 0.05300000 25.875280 15.227165 10.085302 0 0 0 	# PA_2::H2	hc
30 1 6 0.05300000 26.966779 16.487240 11.543148 0 0 0 	# PA_2::H3	hc
31 1 6 0.05300000 28.099099 15.172040 11.920240 0 0 0 	# PA_2::H4	hc
32 1 6 0.05300000 26.782756 14.350256 13.789632 0 0 0 	# PA_2::H5	hc
33 1 6 0.05300000 25.485387 15.454394 13.368910 0 0 0 	# PA_2::H6	hc
34 1 6 0.05300000 28.253666 16.281011 14.462499 0 0 0 	# PA_2::H7	hc
35 1 6 0.05300000 26.748466 16.334046 15.290357 0 0 0 	# PA_2::H8	hc
36 1 10 -0.46100000 27.757081 18.382921 13.271363 0 0 0 	# PA_2::N	n_2
37 1 7 0.35000000 28.698782 18.108699 13.467861 0 0 0 	# PA_2::H9	hn2
38 1 1 -0.10600000 26.525941 13.357807 10.341791 0 0 0 	# PA_2::C6	c2
39 1 6 0.05300000 27.424142 13.594734 9.823457 0 0 0 	# PA_2::H10	hc
40 1 6 0.05300000 25.837823 13.063762 9.549039 0 0 0 	# PA_2::H11	hc
41 1 4 0.45000000 26.945519 12.308207 11.392860 0 0 0 	# PA_2::C7	c_1
42 1 12 -0.45000000 27.694902 12.581612 12.262977 0 0 0 	# PA_2::O2	o_1
43 1 5 0.88500000 27.701662 19.741032 13.028525 0 0 0 	# Connection_3::C	c_2
44 1 12 -0.58500000 28.560577 20.533425 13.443434 0 0 0 	# Connection_3::O1	o_1
45 1 13 -0.34900000 26.577474 20.096211 12.421592 0 0 0 	# Connection_3::O2	o_2
46 1 15 -0.32000000 28.412608 20.006241 10.029230 0 0 0 	# PEO_4::O	oc
47 1 2 0.05400000 27.352068 19.123911 10.199047 0 0 0 	# PEO_4::C1	c2oe
48 1 2 0.05400000 26.194765 19.593651 11.186108 0 0 0 	# PEO_4::C2	c2oe
49 1 6 0.05300000 27.787616 18.220582 10.657716 0 0 0 	# PEO_4::H2	hc
50 1 6 0.05300000 26.966224 18.818665 9.156893 0 0 0 	# PEO_4::H3	hc
51 1 6 0.05300000 25.515987 18.657632 11.271833 0 0 0 	# PEO_4::H4	hc
52 1 6 0.05300000 25.570328 20.342315 10.706636 0 0 0 	# PEO_4::H5	hc
53 1 15 -0.32000000 29.269041 21.643767 7.331850 0 0 0 	# PEO_5::O	oc
54 1 2 0.05400000 29.118393 22.005934 8.759423 0 0 0 	# PEO_5::C1	c2oe
55 1 2 0.05400000 28.017718 21.345607 9.527747 0 0 0 	# PEO_5::C2	c2oe
56 1 6 0.05300000 28.872028 23.048937 8.699824 0 0 0 	# PEO_5::H2	hc
57 1 6 0.05300000 30.091837 21.998064 9.236805 0 0 0 	# PEO_5::H3	hc
58 1 6 0.05300000 27.137315 21.184150 8.918920 0 0 0 	# PEO_5::H4	hc
59 1 6 0.05300000 27.662898 21.907995 10.399627 0 0 0 	# PEO_5::H5	hc
60 1 16 -0.57000000 30.104116 18.555677 5.471504 0 0 0 	# PEO_6::O	oh
61 1 3 0.05400000 29.926559 19.927309 5.722997 0 0 0 	# PEO_6::C1	c4o
62 1 2 0.05400000 29.526901 20.254370 7.170001 0 0 0 	# PEO_6::C2	c2oe
63 1 6 0.05300000 28.961770 20.244115 5.239965 0 0 0 	# PEO_6::H2	hc
64 1 6 0.05300000 30.759152 20.643316 5.384310 0 0 0 	# PEO_6::H3	hc
65 1 6 0.05300000 30.295291 19.932860 7.896883 0 0 0 	# PEO_6::H4	hc
66 1 6 0.05300000 28.607114 19.683588 7.370744 0 0 0 	# PEO_6::H5	hc
67 1 8 0.41000000 30.845334 18.465674 4.867478 0 0 0 	# H_tail	ho
68 1 14 -0.53500000 19.263585 12.779972 14.599430 0 0 0 	# O10	o_2c
69 1 9 0.42300000 18.660180 13.475895 14.877146 0 0 0 	# H36	ho2
70 2 1 -0.10600000 2.409886 6.636645 32.075006 0 0 0 	# PA_1::C1	c2
71 2 1 -0.10600000 1.943112 5.358543 0.029257 0 0 1 	# PA_1::C2	c2
72 2 1 -0.10600000 1.239599 4.360378 31.718880 0 0 0 	# PA_1::C3	c2
73 2 1 -0.10600000 1.979874 3.066259 31.478687 0 0 0 	# PA_1::C4	c2
74 2 4 0.45000000 2.219815 2.445852 0.156181 0 0 1 	# PA_1::C5	c_1
75 2 12 -0.45000000 1.443324 2.456400 1.100179 0 0 1 	# PA_1::O1	o_1
76 2 6 0.05300000 2.922185 7.209581 0.168225 0 0 1 	# PA_1::H1	hc
77 2 6 0.05300000 3.146197 6.337669 31.253255 0 0 0 	# PA_1::H2	hc
78 2 6 0.05300000 1.275450 5.454490 0.920986 0 0 1 	# PA_1::H3	hc
79 2 6 0.05300000 2.872808 4.959604 0.510192 0 0 1 	# PA_1::H4	hc
80 2 6 0.05300000 1.006574 4.824175 30.708305 0 0 0 	# PA_1::H5	hc
81 2 6 0.05300000 0.304193 4.074498 32.161841 0 0 0 	# PA_1::H6	hc
82 2 6 0.05300000 2.872125 3.237431 30.874105 0 0 0 	# PA_1::H7	hc
83 2 6 0.05300000 1.465416 2.230387 30.963325 0 0 0 	# PA_1::H8	hc
84 2 11 -0.35000000 3.311236 1.661888 0.245759 0 0 1 	# PA_1::N	n_31
85 2 7 0.35000000 3.391115 0.875779 32.294102 0 0 0 	# PA_1::H9	hn2
86 2 1 -0.10600000 1.358376 7.532266 31.426207 0 0 0 	# PA_1::C6	c2
87 2 6 0.05300000 0.828612 7.062233 30.587409 0 0 0 	# PA_1::H10	hc
88 2 6 0.05300000 1.831555 8.418679 31.084613 0 0 0 	# PA_1::H11	hc
89 2 4 0.56200000 0.381585 8.082768 32.400336 0 0 0 	# PA_1::C7	c_1
90 2 12 -0.45000000 31.954338 8.510543 32.238977 -1 0 0 	# PA_1::O2	o_1
91 2 1 -0.10600000 6.256320 0.586055 1.113529 0 0 1 	# PA_2::C1	c2
92 2 1 -0.10600000 6.305143 0.437981 32.199886 0 0 0 	# PA_2::C2	c2
93 2 1 -0.10600000 7.707505 0.091535 31.614834 0 0 0 	# PA_2::C3	c2
94 2 1 -0.10600000 8.572069 1.340153 31.354949 0 0 0 	# PA_2::C4	c2
95 2 4 0.45000000 7.717563 2.225550 30.451490 0 0 0 	# PA_2::C5	c_1
96 2 12 -0.45000000 7.271434 1.733045 29.428571 0 0 0 	# PA_2::O1	o_1
97 2 6 0.05300000 6.974940 32.543374 1.603017 0 -1 1 	# PA_2::H1	hc
98 2 6 0.05300000 6.748071 1.539257 1.290479 0 0 1 	# PA_2::H2	hc
99 2 6 0.05300000 5.860549 1.333403 31.724007 0 0 0 	# PA_2::H3	hc
100 2 6 0.05300000 5.631263 32.192408 31.905711 0 -1 0 	# PA_2::H4	hc
101 2 6 0.05300000 7.488310 32.267781 30.692173 0 -1 0 	# PA_2::H5	hc
102 2 6 0.05300000 8.265941 31.991665 32.241426 0 -1 0 	# PA_2::H6	hc
103 2 6 0.05300000 9.454530 1.139048 30.726952 0 0 0 	# PA_2::H7	hc
104 2 6 0.05300000 9.076589 1.725315 32.237801 0 0 0 	# PA_2::H8	hc
105 2 10 -0.46100000 7.464438 3.480041 30.740668 0 0 0 	# PA_2::N	n_2
106 2 7 0.35000000 7.128690 4.004155 30.017313 0 0 0 	# PA_2::H9	hn2
107 2 1 -0.10600000 4.861633 0.520669 1.617510 0 0 1 	# PA_2::C6	c2
108 2 6 0.05300000 4.873063 0.524584 2.670755 0 0 1 	# PA_2::H10	hc
109 2 6 0.05300000 4.371906 32.224608 1.329507 0 -1 1 	# PA_2::H11	hc
110 2 4 0.45000000 4.216099 1.792595 1.216262 0 0 1 	# PA_2::C7	c_1
111 2 12 -0.45000000 4.476344 2.829331 1.797556 0 0 1 	# PA_2::O2	o_1
112 2 5 0.88500000 7.478284 4.067379 31.999600 0 0 0 	# Connection_3::C	c_2
113 2 12 -0.58500000 7.793001 3.581735 0.461288 0 0 1 	# Connection_3::O1	o_1
114 2 13 -0.34900000 6.930428 5.258678 31.836641 0 0 0 	# Connection_3::O2	o_2
115 2 15 -0.32000000 6.573519 8.370967 0.879326 0 0 1 	# PEO_4::O	oc
116 2 2 0.05400000 6.533351 7.583701 32.305500 0 0 0 	# PEO_4::C1	c2oe
117 2 2 0.05400000 6.674886 6.112792 0.209494 0 0 1 	# PEO_4::C2	c2oe
118 2 6 0.05300000 7.421298 7.973138 31.738703 0 0 0 	# PEO_4::H2	hc
119 2 6 0.05300000 5.564740 7.745158 31.801829 0 0 0 	# PEO_4::H3	hc
120 2 6 0.05300000 5.804542 5.846473 0.828452 0 0 1 	# PEO_4::H4	hc
121 2 6 0.05300000 7.516297 6.132288 0.899975 0 0 1 	# PEO_4::H5	hc
122 2 15 -0.32000000 5.034454 7.754955 3.172228 0 0 1 	# PEO_5::O	oc
123 2 2 0.05400000 4.494665 8.664750 2.197922 0 0 1 	# PEO_5::C1	c2oe
124 2 2 0.05400000 5.487376 9.241769 1.223074 0 0 1 	# PEO_5::C2	c2oe
125 2 6 0.05300000 3.990929 9.489244 2.764481 0 0 1 	# PEO_5::H2	hc
126 2 6 0.05300000 3.692344 8.105399 1.585533 0 0 1 	# PEO_5::H3	hc
127 2 6 0.05300000 5.950225 10.155482 1.584990 0 0 1 	# PEO_5::H4	hc
128 2 6 0.05300000 4.869960 9.476541 0.325766 0 0 1 	# PEO_5::H5	hc
129 2 16 -0.57000000 4.008074 4.649525 5.091180 0 0 1 	# PEO_6::O	oh
130 2 3 0.05400000 4.836585 5.801537 4.587835 0 0 1 	# PEO_6::C1	c4o
131 2 2 0.05400000 4.303294 6.536126 3.289454 0 0 1 	# PEO_6::C2	c2oe
132 2 6 0.05300000 5.870705 5.452694 4.484018 0 0 1 	# PEO_6::H2	hc
133 2 6 0.05300000 4.672287 6.598175 5.364781 0 0 1 	# PEO_6::H3	hc
134 2 6 0.05300000 3.234061 6.778703 3.456985 0 0 1 	# PEO_6::H4	hc
135 2 6 0.05300000 4.510340 5.956789 2.371469 0 0 1 	# PEO_6::H5	hc
136 2 8 0.41000000 4.304274 3.889985 4.584472 0 0 1 	# H_tail	ho
137 2 14 -0.53500000 0.936061 8.071860 1.038477 0 0 1 	# O10	o_2c
138 2 9 0.42300000 0.287739 8.508453 1.608148 0 0 1 	# H36	ho2
139 3 1 -0.10600000 26.366182 28.885907 19.302415 0 0 0 	# PA_1::C1	c2
140 3 1 -0.10600000 25.174197 28.791006 18.337952 0 0 0 	# PA_1::C2	c2
141 3 1 -0.10600000 24.738976 30.060192 17.499219 0 0 0 	# PA_1::C3	c2
142 3 1 -0.10600000 23.641599 29.874798 16.484922 0 0 0 	# PA_1::C4	c2
143 3 4 0.45000000 23.113108 31.133109 15.868029 0 0 0 	# PA_1::C5	c_1
144 3 12 -0.45000000 22.122683 31.592954 16.384860 0 0 0 	# PA_1::O1	o_1
145 3 6 0.05300000 26.531623 29.901478 19.719642 0 0 0 	# PA_1::H1	hc
146 3 6 0.05300000 26.257205 28.214020 20.206168 0 0 0 	# PA_1::H2	hc
147 3 6 0.05300000 24.244090 28.397879 18.899067 0 0 0 	# PA_1::H3	hc
148 3 6 0.05300000 25.366254 27.964421 17.607935 0 0 0 	# PA_1::H4	hc
149 3 6 0.05300000 25.586297 30.488131 16.912469 0 0 0 	# PA_1::H5	hc
150 3 6 0.05300000 24.347907 30.860585 18.208238 0 0 0 	# PA_1::H6	hc
151 3 6 0.05300000 22.665347 29.570596 16.888694 0 0 0 	# PA_1::H7	hc
152 3 6 0.05300000 23.988450 29.027051 15.834000 0 0 0 	# PA_1::H8	hc
153 3 11 -0.35000000 23.571125 31.545046 14.650212 0 0 0 	# PA_1::N	n_31
154 3 7 0.35000000 23.220158 32.397005 14.246897 0 0 0 	# PA_1::H9	hn2
155 3 1 -0.10600000 27.570348 28.356764 18.592122 0 0 0 	# PA_1::C6	c2
156 3 6 0.05300000 27.468001 27.316929 18.087994 0 0 0 	# PA_1::H10	hc
157 3 6 0.05300000 28.427663 28.355392 19.279522 0 0 0 	# PA_1::H11	hc
158 3 4 0.56200000 28.049559 29.241805 17.481290 0 0 0 	# PA_1::C7	c_1
159 3 12 -0.45000000 28.665896 28.788916 16.565781 0 0 0 	# PA_1::O2	o_1
160 3 1 -0.10600000 24.757296 0.000848 12.009525 0 1 0 	# PA_2::C1	c2
161 3 1 -0.10600000 23.358004 0.679621 11.915505 0 1 0 	# PA_2::C2	c2
162 3 1 -0.10600000 23.455714 2.208242 12.226335 0 1 0 	# PA_2::C3	c2
163 3 1 -0.10600000 23.556625 2.803506 13.700184 0 1 0 	# PA_2::C4	c2
164 3 4 0.45000000 22.726579 4.006898 13.957653 0 1 0 	# PA_2::C5	c_1
165 3 12 -0.45000000 23.218134 5.122008 13.925224 0 1 0 	# PA_2::O1	o_1
166 3 6 0.05300000 24.818626 31.616369 11.545010 0 0 0 	# PA_2::H1	hc
167 3 6 0.05300000 25.475590 0.537500 11.289043 0 1 0 	# PA_2::H2	hc
168 3 6 0.05300000 22.688011 0.194070 12.662373 0 1 0 	# PA_2::H3	hc
169 3 6 0.05300000 22.973989 0.701305 10.875441 0 1 0 	# PA_2::H4	hc
170 3 6 0.05300000 22.605943 2.639675 11.704769 0 1 0 	# PA_2::H5	hc
171 3 6 0.05300000 24.319430 2.534496 11.663980 0 1 0 	# PA_2::H6	hc
172 3 6 0.05300000 24.590190 3.125966 13.863143 0 1 0 	# PA_2::H7	hc
173 3 6 0.05300000 23.327796 1.916392 14.437190 0 1 0 	# PA_2::H8	hc
174 3 10 -0.46100000 21.408766 3.845702 13.997298 0 1 0 	# PA_2::N	n_2
175 3 7 0.35000000 20.918191 4.691293 14.092559 0 1 0 	# PA_2::H9	hn2
176 3 1 -0.10600000 25.386273 32.504055 13.406335 0 0 0 	# PA_2::C6	c2
177 3 6 0.05300000 25.290946 0.760277 14.023849 0 1 0 	# PA_2::H10	hc
178 3 6 0.05300000 26.421111 32.245770 13.174437 0 0 0 	# PA_2::H11	hc
179 3 4 0.45000000 24.849912 31.323990 14.260613 0 0 0 	# PA_2::C7	c_1
180 3 12 -0.45000000 25.595017 30.461581 14.583787 0 0 0 	# PA_2::O2	o_1
181 3 5 0.88500000 20.623395 2.778938 14.091122 0 1 0 	# Connection_3::C	c_2
182 3 12 -0.58500000 20.940757 1.593596 13.816835 0 1 0 	# Connection_3::O1	o_1
183 3 13 -0.34900000 19.372791 3.256512 14.355482 0 1 0 	# Connection_3::O2	o_2
184 3 15 -0.32000000 17.910927 32.642031 14.632185 0 0 0 	# PEO_4::O	oc
185 3 2 0.05400000 18.355195 1.222323 15.115707 0 1 0 	# PEO_4::C1	c2oe
186 3 2 0.05400000 18.210230 2.373862 14.071397 0 1 0 	# PEO_4::C2	c2oe
187 3 6 0.05300000 19.419621 1.076010 15.365142 0 1 0 	# PEO_4::H2	hc
188 3 6 0.05300000 17.759398 1.508824 16.013614 0 1 0 	# PEO_4::H3	hc
189 3 6 0.05300000 17.252103 2.875198 14.240561 0 1 0 	# PEO_4::H4	hc
190 3 6 0.05300000 18.318194 1.950110 13.025912 0 1 0 	# PEO_4::H5	hc
191 3 15 -0.32000000 18.418942 30.299373 12.018538 0 0 0 	# PEO_5::O	oc
192 3 2 0.05400000 18.153243 30.700500 13.358460 0 0 0 	# PEO_5::C1	c2oe
193 3 2 0.05400000 18.872582 31.995094 13.814614 0 0 0 	# PEO_5::C2	c2oe
194 3 6 0.05300000 18.275675 29.878161 14.078190 0 0 0 	# PEO_5::H2	hc
195 3 6 0.05300000 17.023568 30.791516 13.469461 0 0 0 	# PEO_5::H3	hc
196 3 6 0.05300000 19.177044 32.597650 12.944074 0 0 0 	# PEO_5::H4	hc
197 3 6 0.05300000 19.840473 31.855615 14.333601 0 0 0 	# PEO_5::H5	hc
198 3 16 -0.57000000 21.441717 30.033544 11.322909 0 0 0 	# PEO_6::O	oh
199 3 3 0.05400000 20.711667 29.225541 12.308729 0 0 0 	# PEO_6::C1	c4o
200 3 2 0.05400000 19.209276 29.146805 11.933466 0 0 0 	# PEO_6::C2	c2oe
201 3 6 0.05300000 21.056461 29.542511 13.299383 0 0 0 	# PEO_6::H2	hc
202 3 6 0.05300000 21.084873 28.145342 12.198871 0 0 0 	# PEO_6::H3	hc
203 3 6 0.05300000 18.736499 28.334492 12.552547 0 0 0 	# PEO_6::H4	hc
204 3 6 0.05300000 19.223580 28.880911 10.839486 0 0 0 	# PEO_6::H5	hc
205 3 8 0.41000000 22.374176 29.806348 11.426726 0 0 0 	# H_tail	ho
206 3 14 -0.53500000 27.914685 30.593940 17.594513 0 0 0 	# O10	o_2c
207 3 9 0.42300000 28.244489 31.047841 16.799998 0 0 0 	# H36	ho2
208 4 1 -0.10600000 22.560125 2.037592 0.664226 0 0 0 	# PA_1::C1	c2
209 4 1 -0.10600000 23.897630 1.315373 0.746953 0 0 0 	# PA_1::C2	c2
210 4 1 -0.10600000 24.853080 2.444640 1.115450 0 0 0 	# PA_1::C3	c2
211 4 1 -0.10600000 26.335354 2.131837 1.600006 0 0 0 	# PA_1::C4	c2
212 4 4 0.45000000 26.384013 1.659801 3.047657 0 0 0 	# PA_1::C5	c_1
213 4 12 -0.45000000 26.271966 0.450923 3.163900 0 0 0 	# PA_1::O1	o_1
214 4 6 0.05300000 22.258537 2.668785 1.576016 0 0 0 	# PA_1::H1	hc
215 4 6 0.05300000 22.736278 2.787706 32.540957 0 0 -1 	# PA_1::H2	hc
216 4 6 0.05300000 24.206469 0.880341 32.384954 0 0 -1 	# PA_1::H3	hc
217 4 6 0.05300000 23.775395 0.533085 1.494742 0 0 0 	# PA_1::H4	hc
218 4 6 0.05300000 24.418675 3.090301 1.892082 0 0 0 	# PA_1::H5	hc
219 4 6 0.05300000 25.011401 3.001963 0.112076 0 0 0 	# PA_1::H6	hc
220 4 6 0.05300000 26.794284 3.130573 1.424957 0 0 0 	# PA_1::H7	hc
221 4 6 0.05300000 26.835400 1.348680 1.035165 0 0 0 	# PA_1::H8	hc
222 4 11 -0.35000000 26.890100 2.503152 4.019863 0 0 0 	# PA_1::N	n_31
223 4 7 0.35000000 27.334106 2.096956 4.807716 0 0 0 	# PA_1::H9	hn2
224 4 1 -0.10600000 21.302141 1.138450 0.334249 0 0 0 	# PA_1::C6	c2
225 4 6 0.05300000 20.409034 1.723150 0.577933 0 0 0 	# PA_1::H10	hc
226 4 6 0.05300000 21.273892 0.202334 0.906258 0 0 0 	# PA_1::H11	hc
227 4 4 0.56200000 21.053653 0.741039 31.482605 0 0 -1 	# PA_1::C7	c_1
228 4 12 -0.45000000 20.276413 32.619792 31.036379 0 -1 -1 	# PA_1::O2	o_1
229 4 1 -0.10600000 26.803853 5.202181 6.130884 0 0 0 	# PA_2::C1	c2
230 4 1 -0.10600000 26.625806 6.729065 5.737921 0 0 0 	# PA_2::C2	c2
231 4 1 -0.10600000 27.733013 7.698948 6.274282 0 0 0 	# PA_2::C3	c2
232 4 1 -0.10600000 27.566364 7.971668 7.781963 0 0 0 	# PA_2::C4	c2
233 4 4 0.45000000 26.824525 9.153725 8.183547 0 0 0 	# PA_2::C5	c_1
234 4 12 -0.45000000 27.437205 10.169525 8.451107 0 0 0 	# PA_2::O1	o_1
235 4 6 0.05300000 27.275193 5.154338 7.149917 0 0 0 	# PA_2::H1	hc
236 4 6 0.05300000 25.800430 4.648676 6.212952 0 0 0 	# PA_2::H2	hc
237 4 6 0.05300000 25.598413 6.995775 6.111519 0 0 0 	# PA_2::H3	hc
238 4 6 0.05300000 26.610065 6.743140 4.641001 0 0 0 	# PA_2::H4	hc
239 4 6 0.05300000 27.700160 8.644372 5.769827 0 0 0 	# PA_2::H5	hc
240 4 6 0.05300000 28.727520 7.226824 6.091500 0 0 0 	# PA_2::H6	hc
241 4 6 0.05300000 28.615212 8.210098 8.127834 0 0 0 	# PA_2::H7	hc
242 4 6 0.05300000 27.254619 7.060045 8.442192 0 0 0 	# PA_2::H8	hc
243 4 10 -0.46100000 25.519318 9.013855 8.054454 0 0 0 	# PA_2::N	n_2
244 4 7 0.35000000 25.207409 8.101643 7.850118 0 0 0 	# PA_2::H9	hn2
245 4 1 -0.10600000 27.708422 4.379091 5.123739 0 0 0 	# PA_2::C6	c2
246 4 6 0.05300000 28.334067 3.632059 5.683547 0 0 0 	# PA_2::H10	hc
247 4 6 0.05300000 28.502186 4.962902 4.588619 0 0 0 	# PA_2::H11	hc
248 4 4 0.45000000 26.990913 3.829308 3.971922 0 0 0 	# PA_2::C7	c_1
249 4 12 -0.45000000 26.619536 4.553545 3.062846 0 0 0 	# PA_2::O2	o_1
250 4 5 0.88500000 24.620006 10.007219 8.245171 0 0 0 	# Connection_3::C	c_2
251 4 12 -0.58500000 24.791913 11.118312 8.836820 0 0 0 	# Connection_3::O1	o_1
252 4 13 -0.34900000 23.483963 9.539177 7.706525 0 0 0 	# Connection_3::O2	o_2
253 4 15 -0.32000000 20.366286 9.246667 7.761421 0 0 0 	# PEO_4::O	oc
254 4 2 0.05400000 21.250150 9.947162 8.645678 0 0 0 	# PEO_4::C1	c2oe
255 4 2 0.05400000 22.426166 10.516180 7.770108 0 0 0 	# PEO_4::C2	c2oe
256 4 6 0.05300000 21.627144 9.323673 9.444994 0 0 0 	# PEO_4::H2	hc
257 4 6 0.05300000 20.689950 10.785471 9.141871 0 0 0 	# PEO_4::H3	hc
258 4 6 0.05300000 22.841238 11.497167 8.072742 0 0 0 	# PEO_4::H4	hc
259 4 6 0.05300000 22.024287 10.577510 6.782230 0 0 0 	# PEO_4::H5	hc
260 4 15 -0.32000000 18.092697 7.215819 7.114778 0 0 0 	# PEO_5::O	oc
261 4 2 0.05400000 18.026893 8.665207 7.354840 0 0 0 	# PEO_5::C1	c2oe
262 4 2 0.05400000 19.011734 9.389477 8.239130 0 0 0 	# PEO_5::C2	c2oe
263 4 6 0.05300000 17.025168 8.905433 7.636508 0 0 0 	# PEO_5::H2	hc
264 4 6 0.05300000 18.046193 9.206434 6.384793 0 0 0 	# PEO_5::H3	hc
265 4 6 0.05300000 18.914971 9.010622 9.243761 0 0 0 	# PEO_5::H4	hc
266 4 6 0.05300000 18.651950 10.432153 8.277926 0 0 0 	# PEO_5::H5	hc
267 4 16 -0.57000000 20.780084 5.149766 7.016904 0 0 0 	# PEO_6::O	oh
268 4 3 0.05400000 20.521276 6.547916 7.136397 0 0 0 	# PEO_6::C1	c4o
269 4 2 0.05400000 19.260777 6.886178 6.281074 0 0 0 	# PEO_6::C2	c2oe
270 4 6 0.05300000 21.441717 7.091036 6.994600 0 0 0 	# PEO_6::H2	hc
271 4 6 0.05300000 20.250483 6.755419 8.200300 0 0 0 	# PEO_6::H3	hc
272 4 6 0.05300000 19.025515 6.104007 5.579665 0 0 0 	# PEO_6::H4	hc
273 4 6 0.05300000 19.470958 7.715571 5.581396 0 0 0 	# PEO_6::H5	hc
274 4 8 0.41000000 20.128705 4.715427 7.560058 0 0 0 	# H_tail	ho
275 4 14 -0.53500000 21.868317 1.493844 30.684302 0 0 -1 	# O10	o_2c
276 4 9 0.42300000 21.919850 1.242528 29.782509 0 0 -1 	# H36	ho2
277 5 1 -0.10600000 15.086740 28.835648 12.665476 0 0 0 	# PA_1::C1	c2
278 5 1 -0.10600000 14.848669 27.774422 11.589522 0 0 0 	# PA_1::C2	c2
279 5 1 -0.10600000 15.429542 27.998809 10.133243 0 0 0 	# PA_1::C3	c2
280 5 1 -0.10600000 14.973583 29.307347 9.547668 0 0 0 	# PA_1::C4	c2
281 5 4 0.45000000 15.352503 29.425599 8.099521 0 0 0 	# PA_1::C5	c_1
282 5 12 -0.45000000 16.465785 29.204543 7.655808 0 0 0 	# PA_1::O1	o_1
283 5 6 0.05300000 16.235846 28.715437 12.934146 0 0 0 	# PA_1::H1	hc
284 5 6 0.05300000 14.955034 29.920713 12.362842 0 0 0 	# PA_1::H2	hc
285 5 6 0.05300000 13.710014 27.701499 11.463988 0 0 0 	# PA_1::H3	hc
286 5 6 0.05300000 15.337579 26.895815 11.931801 0 0 0 	# PA_1::H4	hc
287 5 6 0.05300000 15.204567 27.143585 9.485162 0 0 0 	# PA_1::H5	hc
288 5 6 0.05300000 16.559511 27.940712 10.204043 0 0 0 	# PA_1::H6	hc
289 5 6 0.05300000 15.532411 30.165577 10.009113 0 0 0 	# PA_1::H7	hc
290 5 6 0.05300000 13.872189 29.494211 9.728262 0 0 0 	# PA_1::H8	hc
291 5 11 -0.35000000 14.342125 29.696032 7.341484 0 0 0 	# PA_1::N	n_31
292 5 7 0.35000000 13.434388 29.647341 7.727915 0 0 0 	# PA_1::H9	hn2
293 5 1 -0.10600000 14.208590 28.605317 13.938254 0 0 0 	# PA_1::C6	c2
294 5 6 0.05300000 14.307410 27.527469 14.146835 0 0 0 	# PA_1::H10	hc
295 5 6 0.05300000 13.199420 28.856451 13.808116 0 0 0 	# PA_1::H11	hc
296 5 4 0.56200000 14.520367 29.297844 15.289181 0 0 0 	# PA_1::C7	c_1
297 5 12 -0.45000000 13.879373 29.176948 16.264715 0 0 0 	# PA_1::O2	o_1
298 5 1 -0.10600000 12.885715 31.059173 4.510209 0 0 0 	# PA_2::C1	c2
299 5 1 -0.10600000 11.451643 31.112437 3.936260 0 0 0 	# PA_2::C2	c2
300 5 1 -0.10600000 10.996664 32.448701 3.298075 0 0 0 	# PA_2::C3	c2
301 5 1 -0.10600000 9.561449 32.490600 2.746006 0 0 0 	# PA_2::C4	c2
302 5 4 0.45000000 8.518316 0.188475 3.841359 0 1 0 	# PA_2::C5	c_1
303 5 12 -0.45000000 7.952204 1.236996 3.834240 0 1 0 	# PA_2::O1	o_1
304 5 6 0.05300000 13.690844 30.867966 3.796096 0 0 0 	# PA_2::H1	hc
305 5 6 0.05300000 13.185148 32.043492 4.922440 0 0 0 	# PA_2::H2	hc
306 5 6 0.05300000 10.761762 30.934325 4.848472 0 0 0 	# PA_2::H3	hc
307 5 6 0.05300000 11.378916 30.295225 3.258393 0 0 0 	# PA_2::H4	hc
308 5 6 0.05300000 11.613688 32.601504 2.403959 0 0 0 	# PA_2::H5	hc
309 5 6 0.05300000 11.228791 0.612083 4.072669 0 1 0 	# PA_2::H6	hc
310 5 6 0.05300000 9.456326 31.598146 2.064844 0 0 0 	# PA_2::H7	hc
311 5 6 0.05300000 9.577223 0.723176 2.131403 0 1 0 	# PA_2::H8	hc
312 5 10 -0.46100000 8.322373 31.872564 4.663208 0 0 0 	# PA_2::N	n_2
313 5 7 0.35000000 9.060162 31.315466 4.848341 0 0 0 	# PA_2::H9	hn2
314 5 1 -0.10600000 12.964125 29.963494 5.540411 0 0 0 	# PA_2::C6	c2
315 5 6 0.05300000 12.888916 28.994100 5.034944 0 0 0 	# PA_2::H10	hc
316 5 6 0.05300000 12.151257 30.070512 6.312752 0 0 0 	# PA_2::H11	hc
317 5 4 0.45000000 14.321388 29.798739 6.023997 0 0 0 	# PA_2::C7	c_1
318 5 12 -0.45000000 15.351034 29.844459 5.348354 0 0 0 	# PA_2::O2	o_1
319 5 5 0.88500000 7.348407 31.991077 5.558601 0 0 0 	# Connection_3::C	c_2
320 5 12 -0.58500000 6.130427 32.216215 5.431271 0 0 0 	# Connection_3::O1	o_1
321 5 13 -0.34900000 7.870529 31.729265 6.781185 0 0 0 	# Connection_3::O2	o_2
322 5 15 -0.32000000 7.772982 29.018757 7.970656 0 0 0 	# PEO_4::O	oc
323 5 2 0.05400000 6.614112 29.825779 7.876864 0 0 0 	# PEO_4::C1	c2oe
324 5 2 0.05400000 7.032939 31.335257 7.845546 0 0 0 	# PEO_4::C2	c2oe
325 5 6 0.05300000 5.922564 29.635356 8.685912 0 0 0 	# PEO_4::H2	hc
326 5 6 0.05300000 6.094537 29.550545 6.867498 0 0 0 	# PEO_4::H3	hc
327 5 6 0.05300000 7.621029 31.462260 8.728529 0 0 0 	# PEO_4::H4	hc
328 5 6 0.05300000 6.222389 32.089832 7.969545 0 0 0 	# PEO_4::H5	hc
329 5 15 -0.32000000 9.707720 27.145740 5.561867 0 0 0 	# PEO_5::O	oc
330 5 2 0.05400000 9.204703 27.360918 6.846140 0 0 0 	# PEO_5::C1	c2oe
331 5 2 0.05400000 8.369922 28.673799 6.765314 0 0 0 	# PEO_5::C2	c2oe
332 5 6 0.05300000 10.094969 27.385999 7.490694 0 0 0 	# PEO_5::H2	hc
333 5 6 0.05300000 8.583662 26.541159 7.180647 0 0 0 	# PEO_5::H3	hc
334 5 6 0.05300000 7.556923 28.382302 6.075400 0 0 0 	# PEO_5::H4	hc
335 5 6 0.05300000 8.980283 29.478014 6.362880 0 0 0 	# PEO_5::H5	hc
336 5 16 -0.57000000 11.286659 24.672910 3.829080 0 0 0 	# PEO_6::O	oh
337 5 3 0.05400000 10.056890 25.469058 3.939592 0 0 0 	# PEO_6::C1	c4o
338 5 2 0.05400000 10.046897 25.760621 5.445640 0 0 0 	# PEO_6::C2	c2oe
339 5 6 0.05300000 9.276451 24.860624 3.438664 0 0 0 	# PEO_6::H2	hc
340 5 6 0.05300000 10.350380 26.385874 3.436868 0 0 0 	# PEO_6::H3	hc
341 5 6 0.05300000 11.082389 25.786779 5.691123 0 0 0 	# PEO_6::H4	hc
342 5 6 0.05300000 9.508610 25.050263 6.119030 0 0 0 	# PEO_6::H5	hc
343 5 8 0.41000000 11.622407 24.776205 2.879290 0 0 0 	# H_tail	ho
344 5 14 -0.53500000 15.650010 29.977080 15.106432 0 0 0 	# O10	o_2c
345 5 9 0.42300000 15.978344 30.293527 15.909667 0 0 0 	# H36	ho2
346 6 1 -0.10600000 31.432836 3.356989 11.632727 0 0 0 	# PA_1::C1	c2
347 6 1 -0.10600000 32.551440 3.738064 12.578542 0 0 0 	# PA_1::C2	c2
348 6 1 -0.10600000 32.037940 4.689954 13.700249 0 0 0 	# PA_1::C3	c2
349 6 1 -0.10600000 31.423300 5.985985 13.148768 0 0 0 	# PA_1::C4	c2
350 6 4 0.45000000 31.188528 6.856231 14.267079 0 0 0 	# PA_1::C5	c_1
351 6 12 -0.45000000 30.140594 6.738764 14.826920 0 0 0 	# PA_1::O1	o_1
352 6 6 0.05300000 31.229709 4.270865 11.068085 0 0 0 	# PA_1::H1	hc
353 6 6 0.05300000 31.751537 2.718686 10.790239 0 0 0 	# PA_1::H2	hc
354 6 6 0.05300000 0.564207 4.304633 11.946856 1 0 0 	# PA_1::H3	hc
355 6 6 0.05300000 0.469524 2.968186 13.061084 1 0 0 	# PA_1::H4	hc
356 6 6 0.05300000 0.265172 4.942394 14.327103 1 0 0 	# PA_1::H5	hc
357 6 6 0.05300000 31.241106 4.192390 14.298724 0 0 0 	# PA_1::H6	hc
358 6 6 0.05300000 30.466577 5.810028 12.703293 0 0 0 	# PA_1::H7	hc
359 6 6 0.05300000 31.980986 6.361509 12.323948 0 0 0 	# PA_1::H8	hc
360 6 11 -0.35000000 32.076312 7.775137 14.453290 0 0 0 	# PA_1::N	n_31
361 6 7 0.35000000 0.206022 7.799206 13.918529 1 0 0 	# PA_1::H9	hn2
362 6 1 -0.10600000 30.172663 2.776978 12.229373 0 0 0 	# PA_1::C6	c2
363 6 6 0.05300000 29.428930 2.499220 11.456379 0 0 0 	# PA_1::H10	hc
364 6 6 0.05300000 29.702074 3.612106 12.829023 0 0 0 	# PA_1::H11	hc
365 6 4 0.56200000 30.385032 1.580510 13.072253 0 0 0 	# PA_1::C7	c_1
366 6 12 -0.45000000 29.791848 1.284365 14.078353 0 0 0 	# PA_1::O2	o_1
367 6 1 -0.10600000 32.272712 9.933806 12.594642 0 0 0 	# PA_2::C1	c2
368 6 1 -0.10600000 30.871068 9.611088 11.922004 0 0 0 	# PA_2::C2	c2
369 6 1 -0.10600000 31.028182 9.644235 10.363051 0 0 0 	# PA_2::C3	c2
370 6 1 -0.10600000 31.489496 8.318029 9.790735 0 0 0 	# PA_2::C4	c2
371 6 4 0.45000000 30.521441 7.186558 9.723494 0 0 0 	# PA_2::C5	c_1
372 6 12 -0.45000000 29.392158 7.296384 10.116065 0 0 0 	# PA_2::O1	o_1
373 6 6 0.05300000 0.343357 9.099808 12.361960 1 0 0 	# PA_2::H1	hc
374 6 6 0.05300000 0.037516 10.855651 12.232704 1 0 0 	# PA_2::H2	hc
375 6 6 0.05300000 30.277688 10.471897 12.185481 0 0 0 	# PA_2::H3	hc
376 6 6 0.05300000 30.378403 8.745674 12.344456 0 0 0 	# PA_2::H4	hc
377 6 6 0.05300000 31.726587 10.445608 10.093270 0 0 0 	# PA_2::H5	hc
378 6 6 0.05300000 30.091673 9.856637 9.920678 0 0 0 	# PA_2::H6	hc
379 6 6 0.05300000 32.388743 7.947763 10.325658 0 0 0 	# PA_2::H7	hc
380 6 6 0.05300000 31.866425 8.660505 8.776503 0 0 0 	# PA_2::H8	hc
381 6 10 -0.46100000 31.084809 6.119977 9.278639 0 0 0 	# PA_2::N	n_2
382 6 7 0.35000000 32.079447 6.180850 9.056701 0 0 0 	# PA_2::H9	hn2
383 6 1 -0.10600000 32.364609 10.080632 14.156730 0 0 0 	# PA_2::C6	c2
384 6 6 0.05300000 31.848822 11.000910 14.554788 0 0 0 	# PA_2::H10	hc
385 6 6 0.05300000 0.793241 10.058001 14.441370 1 0 0 	# PA_2::H11	hc
386 6 4 0.45000000 31.650137 8.955366 14.841485 0 0 0 	# PA_2::C7	c_1
387 6 12 -0.45000000 30.695144 9.230469 15.574147 0 0 0 	# PA_2::O2	o_1
388 6 5 0.88500000 30.388919 5.108357 8.736498 0 0 0 	# Connection_3::C	c_2
389 6 12 -0.58500000 29.164603 4.798147 8.922121 0 0 0 	# Connection_3::O1	o_1
390 6 13 -0.34900000 31.298125 4.367302 8.014188 0 0 0 	# Connection_3::O2	o_2
391 6 15 -0.32000000 31.547724 1.590516 8.523443 0 0 0 	# PEO_4::O	oc
392 6 2 0.05400000 30.334806 2.093403 7.993842 0 0 0 	# PEO_4::C1	c2oe
393 6 2 0.05400000 30.826916 3.285698 7.224996 0 0 0 	# PEO_4::C2	c2oe
394 6 6 0.05300000 29.576246 2.323410 8.811021 0 0 0 	# PEO_4::H2	hc
395 6 6 0.05300000 29.910524 1.380968 7.340177 0 0 0 	# PEO_4::H3	hc
396 6 6 0.05300000 30.129458 3.714715 6.553761 0 0 0 	# PEO_4::H4	hc
397 6 6 0.05300000 31.586194 2.989658 6.471302 0 0 0 	# PEO_4::H5	hc
398 6 15 -0.32000000 0.604865 0.530283 10.906596 1 0 0 	# PEO_5::O	oc
399 6 2 0.05400000 32.656041 32.463103 9.832993 0 -1 0 	# PEO_5::C1	c2oe
400 6 2 0.05400000 31.320234 0.429552 9.324554 0 0 0 	# PEO_5::C2	c2oe
401 6 6 0.05300000 32.538606 31.372976 10.115575 0 -1 0 	# PEO_5::H2	hc
402 6 6 0.05300000 0.696142 32.486355 8.986129 1 -1 0 	# PEO_5::H3	hc
403 6 6 0.05300000 30.688090 0.686195 10.165051 0 0 0 	# PEO_5::H4	hc
404 6 6 0.05300000 30.800039 32.243712 8.798350 0 -1 0 	# PEO_5::H5	hc
405 6 16 -0.57000000 3.927835 0.086066 12.374076 1 0 0 	# PEO_6::O	oh
406 6 3 0.05400000 2.596492 0.663325 12.358042 1 0 0 	# PEO_6::C1	c4o
407 6 2 0.05400000 1.780959 32.469798 11.391946 1 -1 0 	# PEO_6::C2	c2oe
408 6 6 0.05300000 2.612279 1.711184 11.931964 1 0 0 	# PEO_6::H2	hc
409 6 6 0.05300000 2.237721 0.662486 13.403592 1 0 0 	# PEO_6::H3	hc
410 6 6 0.05300000 1.566513 31.440151 11.773022 1 -1 0 	# PEO_6::H4	hc
411 6 6 0.05300000 2.434461 32.336165 10.536623 1 -1 0 	# PEO_6::H5	hc
412 6 8 0.41000000 4.496885 0.507289 13.022843 1 0 0 	# H_tail	ho
413 6 14 -0.53500000 31.285128 0.688069 12.557870 0 0 0 	# O10	o_2c
414 6 9 0.42300000 31.758656 1.020127 11.802250 0 0 0 	# H36	ho2
415 7 1 -0.10600000 3.547902 25.758727 18.098739 0 0 0 	# PA_1::C1	c2
416 7 1 -0.10600000 3.376028 26.688279 19.270345 0 0 0 	# PA_1::C2	c2
417 7 1 -0.10600000 2.733979 25.918616 20.473760 0 0 0 	# PA_1::C3	c2